 TITLE = "m"
 VARIABLES = "X","Y","Z","Mx","My","Mz", "SD"
 ZONE T="",  N=5870,  E=30390
 F=FEBLOCK, ET=TETRAHEDRON, VARLOCATION=([7]=CELLCENTERED)
   0.1673094E+01   0.1647047E+01   0.1633389E+01   0.1622328E+01   0.1634605E+01   0.1572042E+01   0.1649960E+01   0.1662866E+01   0.1705195E+01   0.1614660E+01
   0.1623450E+01   0.1661509E+01   0.1665888E+01   0.1701388E+01   0.1678655E+01   0.1570370E+01   0.1575930E+01   0.1555034E+01   0.1614428E+01   0.1701440E+01
   0.1636926E+01   0.1640357E+01   0.1636832E+01   0.1719468E+01   0.1613789E+01   0.1597704E+01   0.1588907E+01   0.1656345E+01   0.1646629E+01   0.1653665E+01
   0.1719913E+01   0.1658955E+01   0.1664157E+01   0.1642950E+01   0.1569210E+01   0.1603704E+01   0.1631929E+01   0.1638562E+01   0.1645266E+01   0.1598978E+01
   0.1614327E+01   0.1599104E+01   0.1584226E+01   0.1670758E+01   0.1613616E+01   0.1644847E+01   0.1657034E+01   0.1657861E+01   0.1642561E+01   0.1644499E+01
   0.1699004E+01   0.1649695E+01   0.1681755E+01   0.1621903E+01   0.1614095E+01   0.1614299E+01   0.1595983E+01   0.1642058E+01   0.1708266E+01   0.1744601E+01
   0.1555187E+01   0.1534267E+01   0.1605326E+01   0.1673006E+01   0.1673324E+01   0.1662053E+01   0.1543336E+01   0.1597811E+01   0.1599629E+01   0.1729735E+01
   0.1640220E+01   0.1579258E+01   0.1707291E+01   0.1723383E+01   0.1716319E+01   0.1645950E+01   0.1617786E+01   0.1692902E+01   0.1603300E+01   0.1667351E+01
   0.1545952E+01   0.1666372E+01   0.1634916E+01   0.1597488E+01   0.1555609E+01   0.1529285E+01   0.1718847E+01   0.1632363E+01   0.1542235E+01   0.1693339E+01
   0.1696960E+01   0.1567748E+01   0.1530367E+01   0.1727035E+01   0.1665275E+01   0.1611277E+01   0.1611054E+01   0.1561244E+01   0.1584142E+01   0.1669486E+01
   0.1616930E+01   0.1704137E+01   0.1627542E+01   0.1640363E+01   0.1694990E+01   0.1696761E+01   0.1629759E+01   0.1655956E+01   0.1575934E+01   0.1632388E+01
   0.1643544E+01   0.1566638E+01   0.1641305E+01   0.1581971E+01   0.1553414E+01   0.1699549E+01   0.1613728E+01   0.1669127E+01   0.1555755E+01   0.1637525E+01
   0.1740407E+01   0.1588824E+01   0.1668672E+01   0.1730290E+01   0.1697653E+01   0.1731979E+01   0.1707382E+01   0.1625465E+01   0.1659050E+01   0.1605212E+01
   0.1591872E+01   0.1668108E+01   0.1590867E+01   0.1594392E+01   0.1623702E+01   0.1544234E+01   0.1670736E+01   0.1687018E+01   0.1674200E+01   0.1693592E+01
   0.1565480E+01   0.1619813E+01   0.1682631E+01   0.1551029E+01   0.1592512E+01   0.1616437E+01   0.1591539E+01   0.1620969E+01   0.1647593E+01   0.1636484E+01
   0.1681148E+01   0.1636024E+01   0.1620473E+01   0.1594359E+01   0.1722257E+01   0.1618572E+01   0.1626808E+01   0.1614610E+01   0.1693002E+01   0.1727734E+01
   0.1719243E+01   0.1718551E+01   0.1627894E+01   0.1740572E+01   0.1534506E+01   0.1550828E+01   0.1708659E+01   0.1575671E+01   0.1571769E+01   0.1681653E+01
   0.1669521E+01   0.1567159E+01   0.1564601E+01   0.1545565E+01   0.1595694E+01   0.1589573E+01   0.1733586E+01   0.1589162E+01   0.1653615E+01   0.1611793E+01
   0.1604917E+01   0.1704700E+01   0.1573078E+01   0.1530669E+01   0.1623715E+01   0.1738993E+01   0.1638175E+01   0.1567299E+01   0.1710025E+01   0.1690773E+01
   0.1584671E+01   0.1570801E+01   0.1720781E+01   0.1661045E+01   0.1591476E+01   0.1682064E+01   0.1588482E+01   0.1620617E+01   0.1714948E+01   0.1742879E+01
   0.1731231E+01   0.1633807E+01   0.1687923E+01   0.1532270E+01   0.1701470E+01   0.1650996E+01   0.1539866E+01   0.1536137E+01   0.1526539E+01   0.1630302E+01
   0.1567147E+01   0.1661114E+01   0.1654113E+01   0.1657684E+01   0.1603295E+01   0.1657090E+01   0.1665947E+01   0.1716690E+01   0.1649798E+01   0.1717350E+01
   0.1579926E+01   0.1599727E+01   0.1558263E+01   0.1604834E+01   0.1721621E+01   0.1631587E+01   0.1644928E+01   0.1578452E+01   0.1647911E+01   0.1543124E+01
   0.1591362E+01   0.1629067E+01   0.1596973E+01   0.1639117E+01   0.1657564E+01   0.1592753E+01   0.1566545E+01   0.1680037E+01   0.1543658E+01   0.1587513E+01
   0.1551849E+01   0.1551468E+01   0.1598487E+01   0.1590450E+01   0.1619141E+01   0.1600056E+01   0.1696988E+01   0.1652540E+01   0.1653198E+01   0.1635070E+01
   0.1647408E+01   0.1660585E+01   0.1682760E+01   0.1679502E+01   0.1600980E+01   0.1591078E+01   0.1563452E+01   0.1571356E+01   0.1608605E+01   0.1619201E+01
   0.1695310E+01   0.1612493E+01   0.1711850E+01   0.1555528E+01   0.1633407E+01   0.1687977E+01   0.1555466E+01   0.1664134E+01   0.1694259E+01   0.1680465E+01
   0.1689566E+01   0.1642563E+01   0.1613453E+01   0.1601279E+01   0.1695018E+01   0.1681729E+01   0.1675284E+01   0.1540723E+01   0.1706762E+01   0.1584572E+01
   0.1611756E+01   0.1697440E+01   0.1609788E+01   0.1734465E+01   0.1687702E+01   0.1621668E+01   0.1713261E+01   0.1662659E+01   0.1612153E+01   0.1643028E+01
   0.1648902E+01   0.1576028E+01   0.1587792E+01   0.1582368E+01   0.1655591E+01   0.1706391E+01   0.1613037E+01   0.1691912E+01   0.1631239E+01   0.1644126E+01
   0.1640728E+01   0.1571731E+01   0.1670508E+01   0.1599153E+01   0.1583485E+01   0.1642746E+01   0.1595748E+01   0.1690659E+01   0.1627971E+01   0.1699572E+01
   0.1573332E+01   0.1680623E+01   0.1618200E+01   0.1537543E+01   0.1652710E+01   0.1683185E+01   0.1734732E+01   0.1679279E+01   0.1654579E+01   0.1566514E+01
   0.1603852E+01   0.1615043E+01   0.1691332E+01   0.1564090E+01   0.1664655E+01   0.1568138E+01   0.1720799E+01   0.1536929E+01   0.1682419E+01   0.1708860E+01
   0.1698807E+01   0.1683458E+01   0.1673562E+01   0.1580957E+01   0.1608961E+01   0.1551810E+01   0.1636883E+01   0.1640899E+01   0.1684731E+01   0.1550238E+01
   0.1574030E+01   0.1649939E+01   0.1607030E+01   0.1546524E+01   0.1622090E+01   0.1608849E+01   0.1582523E+01   0.1571445E+01   0.1597013E+01   0.1618838E+01
   0.1595397E+01   0.1632412E+01   0.1628463E+01   0.1669149E+01   0.1686600E+01   0.1628063E+01   0.1607916E+01   0.1580022E+01   0.1631182E+01   0.1565937E+01
   0.1635414E+01   0.1719536E+01   0.1711806E+01   0.1719440E+01   0.1540088E+01   0.1629802E+01   0.1571603E+01   0.1627893E+01   0.1619042E+01   0.1740930E+01
   0.1613571E+01   0.1559824E+01   0.1663468E+01   0.1708371E+01   0.1627923E+01   0.1706324E+01   0.1666608E+01   0.1647811E+01   0.1686978E+01   0.1678580E+01
   0.1654175E+01   0.1618766E+01   0.1681862E+01   0.1678289E+01   0.1552538E+01   0.1643312E+01   0.1599379E+01   0.1632444E+01   0.1652247E+01   0.1580339E+01
   0.1560518E+01   0.1593665E+01   0.1610366E+01   0.1673428E+01   0.1687963E+01   0.1732729E+01   0.1559690E+01   0.1705869E+01   0.1625953E+01   0.1610871E+01
   0.1648297E+01   0.1613061E+01   0.1721167E+01   0.1736989E+01   0.1557515E+01   0.1689460E+01   0.1726354E+01   0.1674804E+01   0.1604273E+01   0.1682424E+01
   0.1578111E+01   0.1559540E+01   0.1744300E+01   0.1733428E+01   0.1583067E+01   0.1644143E+01   0.1707135E+01   0.1630342E+01   0.1705416E+01   0.1665707E+01
   0.1694988E+01   0.1557316E+01   0.1629768E+01   0.1693975E+01   0.1599505E+01   0.1606436E+01   0.1622697E+01   0.1582495E+01   0.1635461E+01   0.1692227E+01
   0.1530354E+01   0.1547895E+01   0.1644520E+01   0.1628947E+01   0.1704836E+01   0.1703329E+01   0.1628231E+01   0.1608765E+01   0.1671481E+01   0.1627594E+01
   0.1721932E+01   0.1561411E+01   0.1707198E+01   0.1583506E+01   0.1714406E+01   0.1689435E+01   0.1661442E+01   0.1716385E+01   0.1591176E+01   0.1630458E+01
   0.1583339E+01   0.1634798E+01   0.1649768E+01   0.1598593E+01   0.1731708E+01   0.1672709E+01   0.1614844E+01   0.1672568E+01   0.1667654E+01   0.1568027E+01
   0.1626598E+01   0.1695311E+01   0.1543874E+01   0.1670094E+01   0.1670791E+01   0.1684571E+01   0.1670064E+01   0.1632131E+01   0.1581327E+01   0.1618197E+01
   0.1641589E+01   0.1652181E+01   0.1651886E+01   0.1594546E+01   0.1727379E+01   0.1614617E+01   0.1704050E+01   0.1636507E+01   0.1603675E+01   0.1673923E+01
   0.1663600E+01   0.1591260E+01   0.1629036E+01   0.1700062E+01   0.1737389E+01   0.1729019E+01   0.1677190E+01   0.1624465E+01   0.1618462E+01   0.1669910E+01
   0.1669401E+01   0.1570598E+01   0.1568590E+01   0.1677453E+01   0.1708001E+01   0.1607282E+01   0.1613062E+01   0.1665880E+01   0.1716966E+01   0.1654361E+01
   0.1661206E+01   0.1664102E+01   0.1572321E+01   0.1546565E+01   0.1553112E+01   0.1649506E+01   0.1573266E+01   0.1651305E+01   0.1559693E+01   0.1654227E+01
   0.1600262E+01   0.1600702E+01   0.1582502E+01   0.1640862E+01   0.1724239E+01   0.1650080E+01   0.1536147E+01   0.1657463E+01   0.1635568E+01   0.1569417E+01
   0.1536019E+01   0.1640919E+01   0.1630035E+01   0.1647901E+01   0.1679226E+01   0.1605195E+01   0.1744712E+01   0.1626309E+01   0.1532224E+01   0.1587289E+01
   0.1723193E+01   0.1653045E+01   0.1601395E+01   0.1636554E+01   0.1640767E+01   0.1614951E+01   0.1660264E+01   0.1723564E+01   0.1692121E+01   0.1632369E+01
   0.1649861E+01   0.1632449E+01   0.1533434E+01   0.1545385E+01   0.1648095E+01   0.1540777E+01   0.1682758E+01   0.1656996E+01   0.1635109E+01   0.1738815E+01
   0.1612543E+01   0.1588926E+01   0.1729607E+01   0.1633204E+01   0.1576873E+01   0.1527175E+01   0.1530638E+01   0.1529523E+01   0.1652161E+01   0.1583462E+01
   0.1605051E+01   0.1581222E+01   0.1536542E+01   0.1676371E+01   0.1540350E+01   0.1644723E+01   0.1711174E+01   0.1573112E+01   0.1675685E+01   0.1555391E+01
   0.1633602E+01   0.1626113E+01   0.1558085E+01   0.1719217E+01   0.1548865E+01   0.1568172E+01   0.1567571E+01   0.1551039E+01   0.1679224E+01   0.1655535E+01
   0.1719556E+01   0.1564700E+01   0.1600158E+01   0.1553168E+01   0.1576532E+01   0.1540479E+01   0.1649682E+01   0.1686075E+01   0.1690334E+01   0.1583846E+01
   0.1584920E+01   0.1581776E+01   0.1526895E+01   0.1667526E+01   0.1636229E+01   0.1571056E+01   0.1703687E+01   0.1577106E+01   0.1632916E+01   0.1690322E+01
   0.1729216E+01   0.1615074E+01   0.1649200E+01   0.1661787E+01   0.1703591E+01   0.1599758E+01   0.1688128E+01   0.1695994E+01   0.1617095E+01   0.1574250E+01
   0.1668363E+01   0.1579606E+01   0.1547224E+01   0.1613959E+01   0.1602808E+01   0.1613768E+01   0.1591417E+01   0.1599097E+01   0.1643517E+01   0.1672433E+01
   0.1714276E+01   0.1599336E+01   0.1605831E+01   0.1578361E+01   0.1735921E+01   0.1603989E+01   0.1558451E+01   0.1658578E+01   0.1725416E+01   0.1719804E+01
   0.1711062E+01   0.1549018E+01   0.1540619E+01   0.1622002E+01   0.1672096E+01   0.1583064E+01   0.1602073E+01   0.1622605E+01   0.1540330E+01   0.1660689E+01
   0.1658901E+01   0.1714589E+01   0.1594920E+01   0.1657885E+01   0.1702861E+01   0.1669787E+01   0.1726622E+01   0.1564355E+01   0.1640563E+01   0.1604821E+01
   0.1619899E+01   0.1661803E+01   0.1610520E+01   0.1592807E+01   0.1532382E+01   0.1727040E+01   0.1613872E+01   0.1696722E+01   0.1609956E+01   0.1591628E+01
   0.1644355E+01   0.1741789E+01   0.1732671E+01   0.1643862E+01   0.1580822E+01   0.1664445E+01   0.1598767E+01   0.1643612E+01   0.1671488E+01   0.1688323E+01
   0.1634837E+01   0.1672781E+01   0.1713421E+01   0.1668083E+01   0.1665575E+01   0.1578944E+01   0.1582874E+01   0.1603044E+01   0.1594032E+01   0.1638623E+01
   0.1692206E+01   0.1603074E+01   0.1687963E+01   0.1593960E+01   0.1594944E+01   0.1559364E+01   0.1620652E+01   0.1563676E+01   0.1543650E+01   0.1595860E+01
   0.1590494E+01   0.1564356E+01   0.1741662E+01   0.1683413E+01   0.1743235E+01   0.1646016E+01   0.1684277E+01   0.1659397E+01   0.1535175E+01   0.1640361E+01
   0.1528044E+01   0.1586987E+01   0.1629160E+01   0.1587182E+01   0.1566453E+01   0.1665791E+01   0.1611110E+01   0.1606355E+01   0.1589934E+01   0.1692878E+01
   0.1647780E+01   0.1616977E+01   0.1665990E+01   0.1721027E+01   0.1532002E+01   0.1651770E+01   0.1670109E+01   0.1537381E+01   0.1676133E+01   0.1685198E+01
   0.1627469E+01   0.1591790E+01   0.1691299E+01   0.1581327E+01   0.1601010E+01   0.1593817E+01   0.1671453E+01   0.1561426E+01   0.1701047E+01   0.1606536E+01
   0.1738688E+01   0.1679160E+01   0.1560621E+01   0.1688763E+01   0.1646546E+01   0.1589128E+01   0.1695656E+01   0.1636371E+01   0.1648946E+01   0.1543385E+01
   0.1652615E+01   0.1682674E+01   0.1703506E+01   0.1644668E+01   0.1698859E+01   0.1550229E+01   0.1640758E+01   0.1565314E+01   0.1535745E+01   0.1623728E+01
   0.1611353E+01   0.1710202E+01   0.1720465E+01   0.1682921E+01   0.1581074E+01   0.1709857E+01   0.1556510E+01   0.1556227E+01   0.1740761E+01   0.1580639E+01
   0.1680347E+01   0.1608163E+01   0.1626694E+01   0.1691161E+01   0.1673617E+01   0.1688688E+01   0.1641053E+01   0.1639129E+01   0.1590713E+01   0.1690850E+01
   0.1557138E+01   0.1621330E+01   0.1653435E+01   0.1708632E+01   0.1659901E+01   0.1622297E+01   0.1655395E+01   0.1681931E+01   0.1564069E+01   0.1639887E+01
   0.1534245E+01   0.1626480E+01   0.1593281E+01   0.1634066E+01   0.1624393E+01   0.1607341E+01   0.1644359E+01   0.1551644E+01   0.1663044E+01   0.1587226E+01
   0.1663173E+01   0.1640960E+01   0.1634886E+01   0.1715546E+01   0.1596410E+01   0.1690118E+01   0.1599180E+01   0.1565189E+01   0.1676733E+01   0.1553221E+01
   0.1630070E+01   0.1716215E+01   0.1667088E+01   0.1639272E+01   0.1549244E+01   0.1630318E+01   0.1625405E+01   0.1639746E+01   0.1602637E+01   0.1606834E+01
   0.1685731E+01   0.1611481E+01   0.1691845E+01   0.1634745E+01   0.1611935E+01   0.1609825E+01   0.1655883E+01   0.1650582E+01   0.1670698E+01   0.1567486E+01
   0.1666121E+01   0.1581771E+01   0.1575483E+01   0.1597226E+01   0.1634318E+01   0.1578416E+01   0.1618566E+01   0.1645855E+01   0.1533097E+01   0.1539886E+01
   0.1654540E+01   0.1704855E+01   0.1681924E+01   0.1652280E+01   0.1622128E+01   0.1574424E+01   0.1566566E+01   0.1603672E+01   0.1711952E+01   0.1573177E+01
   0.1620870E+01   0.1578809E+01   0.1643080E+01   0.1590215E+01   0.1604067E+01   0.1622049E+01   0.1590748E+01   0.1608195E+01   0.1699241E+01   0.1677981E+01
   0.1545297E+01   0.1688878E+01   0.1604776E+01   0.1659377E+01   0.1731516E+01   0.1639395E+01   0.1533415E+01   0.1656528E+01   0.1649370E+01   0.1551542E+01
   0.1638918E+01   0.1609615E+01   0.1636457E+01   0.1616816E+01   0.1615719E+01   0.1733819E+01   0.1652709E+01   0.1563744E+01   0.1608517E+01   0.1624299E+01
   0.1657436E+01   0.1730936E+01   0.1590676E+01   0.1551166E+01   0.1578094E+01   0.1677569E+01   0.1558269E+01   0.1603080E+01   0.1698339E+01   0.1590061E+01
   0.1658328E+01   0.1694479E+01   0.1612475E+01   0.1595788E+01   0.1708233E+01   0.1703441E+01   0.1700541E+01   0.1553020E+01   0.1557201E+01   0.1691630E+01
   0.1554477E+01   0.1695239E+01   0.1590064E+01   0.1582170E+01   0.1616843E+01   0.1683701E+01   0.1599010E+01   0.1720903E+01   0.1635261E+01   0.1631135E+01
   0.1722236E+01   0.1670853E+01   0.1662632E+01   0.1645147E+01   0.1653803E+01   0.1623907E+01   0.1563349E+01   0.1707453E+01   0.1714797E+01   0.1562490E+01
   0.1639521E+01   0.1635054E+01   0.1538612E+01   0.1568668E+01   0.1574359E+01   0.1696721E+01   0.1624695E+01   0.1678336E+01   0.1690928E+01   0.1536498E+01
   0.1678675E+01   0.1656146E+01   0.1702750E+01   0.1668365E+01   0.1710567E+01   0.1705563E+01   0.1578677E+01   0.1624109E+01   0.1577793E+01   0.1567735E+01
   0.1671666E+01   0.1722717E+01   0.1614124E+01   0.1548389E+01   0.1726602E+01   0.1668704E+01   0.1618404E+01   0.1742535E+01   0.1648896E+01   0.1608542E+01
   0.1574025E+01   0.1700823E+01   0.1639887E+01   0.1590300E+01   0.1700086E+01   0.1624130E+01   0.1607083E+01   0.1636241E+01   0.1709509E+01   0.1644922E+01
   0.1634195E+01   0.1664774E+01   0.1646531E+01   0.1617039E+01   0.1645767E+01   0.1577401E+01   0.1585985E+01   0.1712798E+01   0.1558397E+01   0.1569686E+01
   0.1691454E+01   0.1567951E+01   0.1589009E+01   0.1553370E+01   0.1722770E+01   0.1626288E+01   0.1546912E+01   0.1547749E+01   0.1663976E+01   0.1628270E+01
   0.1657642E+01   0.1661624E+01   0.1609627E+01   0.1590862E+01   0.1676149E+01   0.1680828E+01   0.1639313E+01   0.1587471E+01   0.1564257E+01   0.1708170E+01
   0.1541561E+01   0.1649850E+01   0.1640631E+01   0.1624743E+01   0.1562586E+01   0.1628207E+01   0.1563219E+01   0.1608895E+01   0.1687088E+01   0.1693789E+01
   0.1635121E+01   0.1595230E+01   0.1699442E+01   0.1567687E+01   0.1593256E+01   0.1585436E+01   0.1630300E+01   0.1652040E+01   0.1726106E+01   0.1633919E+01
   0.1575413E+01   0.1561140E+01   0.1729311E+01   0.1655328E+01   0.1634892E+01   0.1695802E+01   0.1616383E+01   0.1611885E+01   0.1613899E+01   0.1672005E+01
   0.1530461E+01   0.1585791E+01   0.1594079E+01   0.1664938E+01   0.1677158E+01   0.1587673E+01   0.1556180E+01   0.1688615E+01   0.1699626E+01   0.1684038E+01
   0.1620165E+01   0.1639684E+01   0.1647137E+01   0.1708557E+01   0.1732278E+01   0.1726313E+01   0.1606346E+01   0.1547699E+01   0.1715619E+01   0.1572443E+01
   0.1627376E+01   0.1709998E+01   0.1615509E+01   0.1696976E+01   0.1656879E+01   0.1663380E+01   0.1677965E+01   0.1622836E+01   0.1613456E+01   0.1714238E+01
   0.1658878E+01   0.1673901E+01   0.1614492E+01   0.1601364E+01   0.1663555E+01   0.1618888E+01   0.1656547E+01   0.1637356E+01   0.1628536E+01   0.1567638E+01
   0.1674199E+01   0.1642074E+01   0.1592364E+01   0.1633119E+01   0.1702779E+01   0.1600343E+01   0.1686350E+01   0.1699062E+01   0.1616125E+01   0.1599009E+01
   0.1612831E+01   0.1624533E+01   0.1569735E+01   0.1598830E+01   0.1655986E+01   0.1702516E+01   0.1579842E+01   0.1677018E+01   0.1576783E+01   0.1712196E+01
   0.1626594E+01   0.1701771E+01   0.1650549E+01   0.1650438E+01   0.1558238E+01   0.1600548E+01   0.1556971E+01   0.1592383E+01   0.1690534E+01   0.1672619E+01
   0.1574017E+01   0.1655207E+01   0.1644430E+01   0.1543491E+01   0.1656256E+01   0.1618364E+01   0.1663400E+01   0.1624602E+01   0.1694853E+01   0.1682743E+01
   0.1559300E+01   0.1713647E+01   0.1569010E+01   0.1565666E+01   0.1695971E+01   0.1616944E+01   0.1653996E+01   0.1587029E+01   0.1578111E+01   0.1640254E+01
   0.1558691E+01   0.1605253E+01   0.1645672E+01   0.1715140E+01   0.1561570E+01   0.1569408E+01   0.1654972E+01   0.1576511E+01   0.1728174E+01   0.1703311E+01
   0.1675643E+01   0.1609529E+01   0.1600469E+01   0.1745370E+01   0.1738164E+01   0.1634142E+01   0.1599790E+01   0.1595205E+01   0.1595909E+01   0.1652749E+01
   0.1677197E+01   0.1685401E+01   0.1541116E+01   0.1734043E+01   0.1577508E+01   0.1682179E+01   0.1571307E+01   0.1590415E+01   0.1680353E+01   0.1612449E+01
   0.1675720E+01   0.1644307E+01   0.1615334E+01   0.1610133E+01   0.1615606E+01   0.1648478E+01   0.1676767E+01   0.1570878E+01   0.1655274E+01   0.1575057E+01
   0.1579129E+01   0.1715512E+01   0.1674343E+01   0.1678917E+01   0.1630395E+01   0.1664254E+01   0.1651668E+01   0.1637454E+01   0.1728961E+01   0.1583633E+01
   0.1711669E+01   0.1683179E+01   0.1550204E+01   0.1580829E+01   0.1739355E+01   0.1582963E+01   0.1557733E+01   0.1606830E+01   0.1550685E+01   0.1735708E+01
   0.1635717E+01   0.1667774E+01   0.1620093E+01   0.1704132E+01   0.1573374E+01   0.1672033E+01   0.1697080E+01   0.1674180E+01   0.1639121E+01   0.1691000E+01
   0.1586237E+01   0.1710089E+01   0.1636681E+01   0.1546020E+01   0.1592242E+01   0.1603465E+01   0.1710681E+01   0.1680910E+01   0.1618290E+01   0.1610608E+01
   0.1539005E+01   0.1634507E+01   0.1633268E+01   0.1687470E+01   0.1633294E+01   0.1632009E+01   0.1625623E+01   0.1661682E+01   0.1650528E+01   0.1616059E+01
   0.1669306E+01   0.1553122E+01   0.1649090E+01   0.1692145E+01   0.1595894E+01   0.1628899E+01   0.1621645E+01   0.1658314E+01   0.1581093E+01   0.1643833E+01
   0.1591179E+01   0.1587639E+01   0.1651077E+01   0.1645973E+01   0.1552143E+01   0.1580140E+01   0.1617493E+01   0.1696319E+01   0.1619421E+01   0.1712932E+01
   0.1666667E+01   0.1615843E+01   0.1697837E+01   0.1551725E+01   0.1715865E+01   0.1576062E+01   0.1622442E+01   0.1650472E+01   0.1581865E+01   0.1569685E+01
   0.1612415E+01   0.1657833E+01   0.1624942E+01   0.1609329E+01   0.1630520E+01   0.1573710E+01   0.1621959E+01   0.1605563E+01   0.1624570E+01   0.1547001E+01
   0.1637826E+01   0.1675525E+01   0.1573576E+01   0.1543531E+01   0.1717857E+01   0.1625662E+01   0.1569018E+01   0.1607824E+01   0.1613468E+01   0.1576110E+01
   0.1590903E+01   0.1713452E+01   0.1610164E+01   0.1595940E+01   0.1551822E+01   0.1659542E+01   0.1558412E+01   0.1562691E+01   0.1621500E+01   0.1660959E+01
   0.1581154E+01   0.1591872E+01   0.1622620E+01   0.1671265E+01   0.1575100E+01   0.1580008E+01   0.1631984E+01   0.1694666E+01   0.1616084E+01   0.1631607E+01
   0.1599406E+01   0.1673125E+01   0.1624928E+01   0.1622379E+01   0.1528651E+01   0.1557981E+01   0.1574804E+01   0.1582277E+01   0.1633716E+01   0.1617463E+01
   0.1537124E+01   0.1589048E+01   0.1615484E+01   0.1637140E+01   0.1650842E+01   0.1644896E+01   0.1635680E+01   0.1621448E+01   0.1643189E+01   0.1546114E+01
   0.1548472E+01   0.1663018E+01   0.1663478E+01   0.1591844E+01   0.1619489E+01   0.1590467E+01   0.1663137E+01   0.1668937E+01   0.1628912E+01   0.1589402E+01
   0.1662073E+01   0.1724800E+01   0.1647575E+01   0.1717367E+01   0.1701047E+01   0.1732954E+01   0.1733429E+01   0.1682953E+01   0.1639552E+01   0.1634844E+01
   0.1737706E+01   0.1591375E+01   0.1723625E+01   0.1583684E+01   0.1649190E+01   0.1555719E+01   0.1738105E+01   0.1617065E+01   0.1632887E+01   0.1704947E+01
   0.1689180E+01   0.1613231E+01   0.1712435E+01   0.1654944E+01   0.1630038E+01   0.1731397E+01   0.1696789E+01   0.1690952E+01   0.1685176E+01   0.1666071E+01
   0.1690585E+01   0.1615170E+01   0.1702447E+01   0.1615513E+01   0.1666114E+01   0.1559342E+01   0.1603796E+01   0.1569635E+01   0.1537474E+01   0.1627957E+01
   0.1666523E+01   0.1622561E+01   0.1552569E+01   0.1561688E+01   0.1542082E+01   0.1627946E+01   0.1640822E+01   0.1629831E+01   0.1547925E+01   0.1686963E+01
   0.1717958E+01   0.1574023E+01   0.1683728E+01   0.1694261E+01   0.1687564E+01   0.1657281E+01   0.1685079E+01   0.1549062E+01   0.1648604E+01   0.1674642E+01
   0.1673009E+01   0.1699014E+01   0.1625091E+01   0.1608358E+01   0.1667925E+01   0.1658980E+01   0.1725921E+01   0.1577166E+01   0.1734752E+01   0.1723019E+01
   0.1564097E+01   0.1659206E+01   0.1737730E+01   0.1628431E+01   0.1640930E+01   0.1610087E+01   0.1606912E+01   0.1673706E+01   0.1649149E+01   0.1724989E+01
   0.1596396E+01   0.1592091E+01   0.1537505E+01   0.1628101E+01   0.1572218E+01   0.1562672E+01   0.1644832E+01   0.1710253E+01   0.1605984E+01   0.1631407E+01
   0.1611004E+01   0.1735960E+01   0.1622542E+01   0.1719074E+01   0.1647426E+01   0.1736407E+01   0.1634626E+01   0.1538185E+01   0.1680844E+01   0.1679879E+01
   0.1542390E+01   0.1605516E+01   0.1742981E+01   0.1670109E+01   0.1620445E+01   0.1543897E+01   0.1646815E+01   0.1641732E+01   0.1641975E+01   0.1674627E+01
   0.1584179E+01   0.1685557E+01   0.1640396E+01   0.1653625E+01   0.1602188E+01   0.1657215E+01   0.1599912E+01   0.1571365E+01   0.1657432E+01   0.1667605E+01
   0.1740624E+01   0.1675479E+01   0.1631911E+01   0.1674747E+01   0.1678229E+01   0.1664683E+01   0.1706777E+01   0.1696982E+01   0.1652150E+01   0.1712124E+01
   0.1635164E+01   0.1545976E+01   0.1556451E+01   0.1644870E+01   0.1697572E+01   0.1608326E+01   0.1664557E+01   0.1617366E+01   0.1598100E+01   0.1726644E+01
   0.1637556E+01   0.1543643E+01   0.1665199E+01   0.1706765E+01   0.1594656E+01   0.1588043E+01   0.1700484E+01   0.1549790E+01   0.1724364E+01   0.1569921E+01
   0.1702019E+01   0.1686342E+01   0.1623236E+01   0.1717747E+01   0.1646573E+01   0.1661768E+01   0.1680925E+01   0.1622684E+01   0.1640138E+01   0.1666785E+01
   0.1655079E+01   0.1635457E+01   0.1658742E+01   0.1622294E+01   0.1578465E+01   0.1654670E+01   0.1595230E+01   0.1668117E+01   0.1638217E+01   0.1669328E+01
   0.1692827E+01   0.1622016E+01   0.1667494E+01   0.1562880E+01   0.1651520E+01   0.1693639E+01   0.1570397E+01   0.1637253E+01   0.1632977E+01   0.1612157E+01
   0.1610348E+01   0.1593882E+01   0.1608141E+01   0.1648601E+01   0.1592586E+01   0.1578945E+01   0.1701660E+01   0.1735388E+01   0.1616741E+01   0.1699100E+01
   0.1662675E+01   0.1598133E+01   0.1711581E+01   0.1638453E+01   0.1612930E+01   0.1672062E+01   0.1664232E+01   0.1540342E+01   0.1576544E+01   0.1614883E+01
   0.1650552E+01   0.1688091E+01   0.1634969E+01   0.1683173E+01   0.1641801E+01   0.1651829E+01   0.1666839E+01   0.1697409E+01   0.1686524E+01   0.1621994E+01
   0.1591563E+01   0.1621575E+01   0.1644554E+01   0.1615523E+01   0.1601231E+01   0.1635672E+01   0.1577467E+01   0.1596695E+01   0.1689447E+01   0.1625328E+01
   0.1650424E+01   0.1635619E+01   0.1565691E+01   0.1709200E+01   0.1665855E+01   0.1577966E+01   0.1593117E+01   0.1641529E+01   0.1596717E+01   0.1620996E+01
   0.1589142E+01   0.1612849E+01   0.1682099E+01   0.1618021E+01   0.1694456E+01   0.1670947E+01   0.1679154E+01   0.1663413E+01   0.1541350E+01   0.1634106E+01
   0.1668900E+01   0.1739566E+01   0.1569190E+01   0.1604812E+01   0.1595953E+01   0.1580965E+01   0.1577983E+01   0.1647128E+01   0.1641017E+01   0.1607089E+01
   0.1589972E+01   0.1674593E+01   0.1657695E+01   0.1611491E+01   0.1670728E+01   0.1599401E+01   0.1619204E+01   0.1651273E+01   0.1589948E+01   0.1635787E+01
   0.1634291E+01   0.1598122E+01   0.1686197E+01   0.1610762E+01   0.1646911E+01   0.1617105E+01   0.1675917E+01   0.1624448E+01   0.1596252E+01   0.1640156E+01
   0.1699579E+01   0.1579730E+01   0.1666212E+01   0.1609655E+01   0.1600799E+01   0.1614155E+01   0.1681097E+01   0.1625964E+01   0.1635436E+01   0.1623513E+01
   0.1561082E+01   0.1591702E+01   0.1650604E+01   0.1612165E+01   0.1649101E+01   0.1655757E+01   0.1565302E+01   0.1607447E+01   0.1619491E+01   0.1584278E+01
   0.1620731E+01   0.1630004E+01   0.1558558E+01   0.1656509E+01   0.1561426E+01   0.1610032E+01   0.1652428E+01   0.1599943E+01   0.1631001E+01   0.1649793E+01
   0.1627804E+01   0.1674305E+01   0.1676766E+01   0.1652162E+01   0.1631067E+01   0.1689760E+01   0.1689410E+01   0.1608601E+01   0.1658008E+01   0.1692756E+01
   0.1657133E+01   0.1618266E+01   0.1640721E+01   0.1672027E+01   0.1598821E+01   0.1612509E+01   0.1564122E+01   0.1656285E+01   0.1647743E+01   0.1643518E+01
   0.1581068E+01   0.1663108E+01   0.1612600E+01   0.1616774E+01   0.1594610E+01   0.1614732E+01   0.1653025E+01   0.1673810E+01   0.1593997E+01   0.1643562E+01
   0.1599885E+01   0.1605763E+01   0.1568153E+01   0.1656339E+01   0.1666343E+01   0.1595390E+01   0.1695855E+01   0.1715486E+01   0.1684155E+01   0.1581474E+01
   0.1545850E+01   0.1720918E+01   0.1654499E+01   0.1632620E+01   0.1677540E+01   0.1621072E+01   0.1672215E+01   0.1623995E+01   0.1648806E+01   0.1612752E+01
   0.1675387E+01   0.1670658E+01   0.1661863E+01   0.1688939E+01   0.1651430E+01   0.1577311E+01   0.1578994E+01   0.1658508E+01   0.1638173E+01   0.1633629E+01
   0.1596944E+01   0.1639874E+01   0.1657356E+01   0.1637063E+01   0.1599609E+01   0.1620689E+01   0.1594559E+01   0.1664946E+01   0.1645143E+01   0.1641433E+01
   0.1703065E+01   0.1635042E+01   0.1608742E+01   0.1601538E+01   0.1620748E+01   0.1589784E+01   0.1695857E+01   0.1667046E+01   0.1678330E+01   0.1650233E+01
   0.1596912E+01   0.1589996E+01   0.1637300E+01   0.1595961E+01   0.1549239E+01   0.1638475E+01   0.1610856E+01   0.1616774E+01   0.1625401E+01   0.1611899E+01
   0.1671212E+01   0.1575897E+01   0.1598495E+01   0.1640705E+01   0.1652001E+01   0.1626213E+01   0.1666493E+01   0.1704889E+01   0.1704404E+01   0.1610828E+01
   0.1676714E+01   0.1627286E+01   0.1649382E+01   0.1631650E+01   0.1593736E+01   0.1573096E+01   0.1665710E+01   0.1619625E+01   0.1681880E+01   0.1629761E+01
   0.1705150E+01   0.1551670E+01   0.1713278E+01   0.1679490E+01   0.1649967E+01   0.1648656E+01   0.1692533E+01   0.1594916E+01   0.1631183E+01   0.1683221E+01
   0.1580519E+01   0.1615246E+01   0.1652070E+01   0.1575030E+01   0.1615084E+01   0.1546728E+01   0.1636260E+01   0.1669816E+01   0.1674730E+01   0.1565104E+01
   0.1578135E+01   0.1694789E+01   0.1619000E+01   0.1612198E+01   0.1601872E+01   0.1602066E+01   0.1634435E+01   0.1618014E+01   0.1606364E+01   0.1626553E+01
   0.1629090E+01   0.1680202E+01   0.1639735E+01   0.1627008E+01   0.1545884E+01   0.1584812E+01   0.1640859E+01   0.1587951E+01   0.1566638E+01   0.1670601E+01
   0.1653824E+01   0.1615246E+01   0.1559899E+01   0.1656416E+01   0.1673773E+01   0.1687164E+01   0.1666403E+01   0.1715536E+01   0.1590793E+01   0.1545898E+01
   0.1649429E+01   0.1588187E+01   0.1602410E+01   0.1666535E+01   0.1599530E+01   0.1689693E+01   0.1623305E+01   0.1599473E+01   0.1707708E+01   0.1616747E+01
   0.1613633E+01   0.1570614E+01   0.1655741E+01   0.1587505E+01   0.1598791E+01   0.1643416E+01   0.1678663E+01   0.1667788E+01   0.1599127E+01   0.1679062E+01
   0.1640328E+01   0.1646578E+01   0.1552159E+01   0.1669042E+01   0.1712825E+01   0.1699975E+01   0.1642348E+01   0.1724689E+01   0.1579319E+01   0.1646150E+01
   0.1652580E+01   0.1638536E+01   0.1612861E+01   0.1700276E+01   0.1583625E+01   0.1592754E+01   0.1606759E+01   0.1568725E+01   0.1693471E+01   0.1632187E+01
   0.1656503E+01   0.1676834E+01   0.1596588E+01   0.1616399E+01   0.1615357E+01   0.1636389E+01   0.1578902E+01   0.1727732E+01   0.1666215E+01   0.1709013E+01
   0.1601159E+01   0.1685495E+01   0.1656990E+01   0.1603569E+01   0.1620251E+01   0.1630973E+01   0.1608277E+01   0.1626979E+01   0.1669913E+01   0.1615369E+01
   0.1609791E+01   0.1669434E+01   0.1607869E+01   0.1641926E+01   0.1639585E+01   0.1626398E+01   0.1659443E+01   0.1579123E+01   0.1697775E+01   0.1674576E+01
   0.1567999E+01   0.1674472E+01   0.1632923E+01   0.1615824E+01   0.1688883E+01   0.1674700E+01   0.1581343E+01   0.1646416E+01   0.1618780E+01   0.1623176E+01
   0.1598336E+01   0.1638146E+01   0.1595985E+01   0.1643523E+01   0.1633592E+01   0.1560144E+01   0.1593525E+01   0.1671211E+01   0.1639158E+01   0.1594668E+01
   0.1595586E+01   0.1610155E+01   0.1673331E+01   0.1597848E+01   0.1620515E+01   0.1622235E+01   0.1688371E+01   0.1584738E+01   0.1661605E+01   0.1581734E+01